
#(C) 2022 by FIZ Karlsruhe - Leibniz Institute for Information Infrastructure.  All rights reserved.
data_154486-ICSD
_database_code_ICSD 154486
_audit_creation_date 2007-04-01
_chemical_name_common 'Zinc oxide - LP'
_chemical_formula_structural 'Zn O'
_chemical_formula_sum 'O1 Zn1'
_chemical_name_structure_type Wurtzite#ZnS(2H)
_chemical_name_mineral Zincite
_exptl_crystal_density_diffrn 5.68
_citation_title

;
High-pressure X-ray investigation of zincite Zn O single crystals using
diamond anvils with an improved shape
;
loop_
_citation_id
_citation_journal_full
_citation_year
_citation_journal_volume
_citation_page_first
_citation_page_last
_citation_journal_id_ASTM
primary 'Journal of Applied Crystallography' 2006 39 169 175 JACGAR
loop_
_citation_author_citation_id
_citation_author_name
primary 'Sowa, H.'
primary 'Ahsbahs, H.'
_cell_length_a 3.2494(2)
_cell_length_b 3.2494(2)
_cell_length_c 5.2054(2)
_cell_angle_alpha 90.
_cell_angle_beta 90.
_cell_angle_gamma 120.
_cell_volume 47.6
_cell_formula_units_Z 2
_space_group_name_H-M_alt 'P 63 m c'
_space_group_IT_number 186
loop_
_space_group_symop_id
_space_group_symop_operation_xyz
1 '-x, -x+y, z+1/2'
2 'x-y, -y, z+1/2'
3 'y, x, z+1/2'
4 'x-y, x, z+1/2'
5 'y, -x+y, z+1/2'
6 '-x, -y, z+1/2'
7 'x, x-y, z'
8 '-x+y, y, z'
9 '-y, -x, z'
10 '-x+y, -x, z'
11 '-y, x-y, z'
12 'x, y, z'
loop_
_atom_type_symbol
_atom_type_oxidation_number
Zn2+ 2
O2- -2
loop_
_atom_site_label
_atom_site_type_symbol
_atom_site_symmetry_multiplicity
_atom_site_Wyckoff_symbol
_atom_site_fract_x
_atom_site_fract_y
_atom_site_fract_z
_atom_site_B_iso_or_equiv
_atom_site_occupancy
Zn1 Zn2+ 2 b 0.3333 0.6667 0 . 1.
O1 O2- 2 b 0.3333 0.6667 0.382(1) . 1.
loop_
_atom_site_aniso_label
_atom_site_aniso_type_symbol
_atom_site_aniso_U_11
_atom_site_aniso_U_22
_atom_site_aniso_U_33
_atom_site_aniso_U_12
_atom_site_aniso_U_13
_atom_site_aniso_U_23
Zn1 Zn2+ 0.0068(4) 0.0068(4) 0.0061(4) 0.0034(2) 0. 0.
O1 O2- 0.007(2) 0.007(2) 0.008(2) 0.0035(10) 0. 0.
#End of TTdata_154486-ICSD